Mineral,Chemical formula,Melting point,
"Albite","NaAlSi3O8","1100",
"Beryl","Be3Al2Si6O18","1650",
"Borax","Na2B4O7·10H2O","743",
"Calcite","CaCO3","1330",
"Chalcopyrite","CuFeS2","950",
"Corundum","Al2O3","2054",
"Fluorite","CaF2","1418",
"Galena","PbS","1118",
"Halite","NaCl","801",
"Ilmenite","FeTiO3","1365 - 1470",
"Rutile","TiO2","1847",
"Sphalerite","ZnS","1827",
"Spinel","MgAl2O4","2130",
"Wollastonite","CaSiO3","1540",